[Molden Format]
[Title]
[Atoms] AU
C      1     6  0.00000000000000E+00  0.00000000000000E+00  0.00000000000000E+00
O      2     8  0.00000000000000E+00  0.00000000000000E+00  0.18897259492972E+01
[GTO]
                    1 0
 s                    4   1.00000000    
   53.809855190600160      -0.16969244886349913     
   9.2665026734139264      -0.20713202083804100     
  0.74460300028404913       0.33166514182840856     
  0.28378663380908331       0.13218424816913210     
 p                    4   1.00000000    
   4.5764358100849023       0.54510036567818954     
   1.1866014322959788       0.50442970228056050     
  0.41831372421097845       0.26459975535100611     
  0.16653790181711076        3.9918047890310983E-002

                    2 0
 s                    4   1.00000000    
   58.697723068402631      -0.18112653992142283     
   10.108233999330277      -0.22108883743851940     
  0.81223970129192558       0.35401315706305070     
  0.30956465470566102       0.14109098939487055     
 p                    4   1.00000000    
   11.063913053724928        1.6432483204027395     
   2.8687073568075716        1.5206433773026382     
   1.0113081152916403       0.79765696546278020     
  0.40261918713989542       0.12033612391343557     

[MO]
Sym=     1a
Ene=   -1.1635792246670156     
Spin= Alpha
Occup=     2.00000000
                    1  0.31479055449470367     
                    2  -1.3200940624352152E-017
                    3   3.1031564982814503E-017
                    4  0.31228073962967201     
                    5  0.47689366874905237     
                    6  -1.1610056568198793E-016
                    7   5.8050282840993964E-017
                    8 -0.36894199788709603     
Sym=     2a
Ene=  -0.87131101771829422     
Spin= Alpha
Occup=     2.00000000
                    1  -1.4511574861957419E-015
                    2  -5.7102263912059373E-002
                    3  0.43410391757508077     
                    4   5.7837532771463564E-016
                    5   2.7879955941853094E-015
                    6 -0.10173195555363386     
                    7  0.77338860883727478     
                    8   2.9249555611166702E-015
Sym=     3a
Ene=  -0.87131101771829345     
Spin= Alpha
Occup=     2.00000000
                    1   4.7281482255298009E-017
                    2 -0.43410391757508143     
                    3  -5.7102263912059401E-002
                    4  -8.1228102489692817E-017
                    5  -2.3625819044961038E-016
                    6 -0.77338860883727423     
                    7 -0.10173195555363379     
                    8  -1.2815558522569190E-016
Sym=     4a
Ene=  -0.84617764947400298     
Spin= Alpha
Occup=     2.00000000
                    1  0.36852616005199235     
                    2  -1.4613637166618907E-016
                    3   1.9748995897105274E-015
                    4 -0.15917276401506419     
                    5 -0.62978337230891401     
                    6  -2.4671370207422430E-016
                    7   3.4830169704596374E-015
                    8 -0.63874816019133485     
Sym=     5a
Ene=  -0.49052449868390086     
Spin= Alpha
Occup=     2.00000000
                    1 -0.72616380864860319     
                    2  -4.4382160702467009E-017
                    3   3.1169287531322099E-016
                    4  0.58432962734233940     
                    5 -0.21332477739743999     
                    6   0.0000000000000000     
                    7   0.0000000000000000     
                    8 -0.44389923749736426     
Sym=     6a
Ene=   -2.1644392737476894E-002
Spin= Alpha
Occup=     0.00000000
                    1  -2.0842021691708258E-017
                    2  0.78119281727334289     
                    3 -0.54000462254621584     
                    4   1.3226477763020021E-017
                    5  -1.7146308198318613E-016
                    6 -0.57292824610519444     
                    7  0.39604038137980718     
                    8  -1.0570164289102515E-016
Sym=     7a
Ene=   -2.1644392737476755E-002
Spin= Alpha
Occup=     0.00000000
                    1   1.2102232394239755E-017
                    2  0.54000462254621573     
                    3  0.78119281727334300     
                    4  -5.0820478429964042E-017
                    5   1.5328957509103938E-016
                    6 -0.39604038137980757     
                    7 -0.57292824610519411     
                    8   1.3609870724544580E-016
